                         Program Version 4.2.1 -  RELEASE  -
|  1> ### Generated by AiiDA-ORCA Plugin ###
|  2> ! Opt SV(P) B3LYP/G
|  3> %pal
|  4> 	nproc 2
|  5> end
|  6> %scf
|  7> 	convergence tight
|  8> end
|  9>
| 10> * xyzfile 0 1 aiida.xyz
| 11>
| 12>                          ****END OF INPUT****
 Total Charge           Charge          ....    0
 Multiplicity           Mult            ....    1
 Number of Electrons    NEL             ....   10
FINAL SINGLE POINT ENERGY       -40.474952408322
FINAL SINGLE POINT ENERGY       -40.477829019803
FINAL SINGLE POINT ENERGY       -40.477833472339
                    ***********************HURRAY********************

CARTESIAN COORDINATES (ANGSTROEM)
---------------------------------
  H      6.817181    5.845338    5.842868
  H      5.345409    6.847938    5.568159
  H      5.345412    5.581586    6.848397
  H      5.345030    5.105761    5.111309
  C      5.713649    5.844907    5.842443

 Multiplicity           Mult            ....    1
 Number of Electrons    NEL             ....   10
 Basis Dimension        Dim             ....   22

ORBITAL ENERGIES
----------------

  NO   OCC          E(Eh)            E(eV)
   0   2.0000     -10.166956      -276.6569
   1   2.0000      -0.682995       -18.5852
   2   2.0000      -0.391667       -10.6578
   3   2.0000      -0.391452       -10.6519
   4   2.0000      -0.391247       -10.6464
   5   0.0000       0.070305         1.9131
   6   0.0000       0.140280         3.8172
   7   0.0000       0.141189         3.8419
   8   0.0000       0.142884         3.8881
   9   0.0000       0.417139        11.3509

MULLIKEN ATOMIC CHARGES
-----------------------
   0 H :    0.112952
   1 H :    0.110420
   2 H :    0.110425
   3 H :    0.111364
   4 C :   -0.445162
Sum of atomic charges:   -0.0000000

LOEWDIN ATOMIC CHARGES
----------------------
   0 H :    0.116976
   1 H :    0.116804
   2 H :    0.116810
   3 H :    0.116876
   4 C :   -0.467466

  Mayer bond orders larger than 0.100000
B(  0-H ,  4-C ) :   0.9846 B(  1-H ,  4-C ) :   0.9849 B(  2-H ,  4-C ) :   0.9849
B(  3-H ,  4-C ) :   0.9846

FINAL SINGLE POINT ENERGY       -40.477833459432

DIPOLE MOMENT
-------------
                                X             Y             Z
Electronic contribution:     -0.00058      -0.00043      -0.00036
Nuclear contribution   :     -0.00110       0.00070       0.00068
                        -----------------------------------------
Total Dipole Moment    :     -0.00167       0.00027       0.00032
                        -----------------------------------------
Magnitude (a.u.)       :      0.00173
Magnitude (Debye)      :      0.00439

Rotational constants in cm-1:     5.156476     5.151509     5.150536
Rotational constants in MHz : 154587.263356 154438.353570 154409.185504

                             ****ORCA TERMINATED NORMALLY****
TOTAL RUN TIME: 0 days 0 hours 0 minutes 10 seconds 539 msec
